 # CALF-20 2x2x2
  
         352  atoms
           5  atom types
 
      0.000000000000      18.090439736407  xlo xhi
      0.000000000000      20.049826826478  ylo yhi
      0.000000000000      16.317827476033  zlo zhi
     -0.000095305410      -8.640339249460      -0.000020499428  xy xz yz
 
Masses
 
            1   65.38000000             # Zn
            2   14.00700000             # N
            3   15.99900000             # O
            4   12.01100000             # C
            5   1.00800000              # H
 
Atoms # atomic
 
         1    1       -0.319633901426       0.526523271689       3.553347260356
         2    1       -4.639803526156       0.526513021975      11.712260998373
         3    1       -0.319681554131      10.551436684928       3.553312497027
         4    1       -4.639851178861      10.551426435213      11.712226235044
         5    1        8.725585966777       0.526483739177       3.431127471140
         6    1        4.405416342048       0.526473489463      11.590041209157
         7    1        8.725538314072      10.551397152416       3.431092707811
         8    1        4.405368689343      10.551386902702      11.590006445828
         9    1        7.204793056310       5.538869456882       0.403744489294
        10    1        2.884623431580       5.538859207167       8.562658227311
        11    1        7.204745403605      15.563782870120       0.403709725965
        12    1        2.884575778875      15.563772620406       8.562623463982
        13    1       16.250012924513       5.538829924370       0.281524700078
        14    1       11.929843299783       5.538819674656       8.440438438095
        15    1       16.249965271808      15.563743337609       0.281489936749
        16    1       11.929795647078      15.563733087895       8.440403674766
        17    1        5.044628892334       9.498377821132       4.483190456390
        18    1        0.724459267604       9.498367571417      12.642104194407
        19    1        5.044581239629      19.523291234370       4.483155693061
        20    1        0.724411614900      19.523280984656      12.642069431078
        21    1       14.089848760538       9.498338288620       4.360970667174
        22    1        9.769679135808       9.498328038906      12.519884405191
        23    1       14.089801107833      19.523251701859       4.360935903845
        24    1        9.769631483103      19.523241452145      12.519849641862
        25    1       -2.479717159860       4.485947127492       7.632790089952
        26    1       -6.799886784590       4.485936877778      15.791703827968
        27    1       -2.479764812565      14.510860540731       7.632755326623
        28    1       -6.799934437295      14.510850291017      15.791669064640
        29    1        6.565502708343       4.485907594980       7.510570300736
        30    1        2.245333083614       4.485897345266      15.669484038752
        31    1        6.565455055639      14.510821008219       7.510535537407
        32    1        2.245285430909      14.510810758505      15.669449275424
        33    2       -1.312237574990       8.892348179574       2.995329689784
        34    2       -5.632407199720       8.892337929860      11.154243427801
        35    2       -1.312285227695      18.917261592813       2.995294926455
        36    2       -5.632454852425      18.917251343099      11.154208664472
        37    2        7.732982293213       8.892308647063       2.873109900568
        38    2        3.412812668484       8.892298397349      11.032023638585
        39    2        7.732934640509      18.917222060302       2.873075137239
        40    2        3.412765015779      18.917211810587      11.031988875256
        41    2        8.197367205399       3.879793317698       0.961701637186
        42    2        3.877197580669       3.879783067984       9.120615375202
        43    2        8.197319552694      13.904706730937       0.961666873857
        44    2        3.877149927964      13.904696481223       9.120580611874
        45    2       17.242587073603       3.879753785186       0.839481847970
        46    2       12.922417448873       3.879743535472       8.998395585986
        47    2       17.242539420898      13.904667198425       0.839447084641
        48    2       12.922369796168      13.904656948711       8.998360822658
        49    2        6.037268264586       1.132548019679       5.041209288097
        50    2        1.717098639856       1.132537769964      13.200123026114
        51    2        6.037220611881      11.157461432917       5.041174524768
        52    2        1.717050987151      11.157451183203      13.200088262785
        53    2       15.082488132789       1.132508487167       4.918989498881
        54    2       10.762318508060       1.132498237453      13.077903236898
        55    2       15.082440480085      11.157421900406       4.918954735552
        56    2       10.762270855355      11.157411650692      13.077868473569
        57    2       -3.472260236358       6.145094338135       7.074911085190
        58    2       -7.792429861088       6.145084088420      15.233824823207
        59    2       -3.472307889063      16.170007751374       7.074876321861
        60    2       -7.792477513792      16.169997501659      15.233790059878
        61    2        5.572959631846       6.145054805623       6.952691295974
        62    2        1.252790007116       6.145044555909      15.111605033991
        63    2        5.572911979141      16.169968218862       6.952656532645
        64    2        1.252742354411      16.169957969148      15.111570270662
        65    2        6.437607057766       8.574971102749       3.194525580535
        66    2        2.117437433036       8.574960853035      11.353439318551
        67    2        6.437559405061      18.599884515988       3.194490817206
        68    2        2.117389780332      18.599874266274      11.353404555223
        69    2       15.482826925970       8.574931570238       3.072305791319
        70    2       11.162657301240       8.574921320523      11.231219529335
        71    2       15.482779273265      18.599844983477       3.072271027990
        72    2       11.162609648535      18.599834733762      11.231184766007
        73    2        0.447507090123       3.562477781666       0.762506209197
        74    2       -3.872662534607       3.562467531952       8.921419947213
        75    2        0.447459437418      13.587391194905       0.762471445868
        76    2       -3.872710187312      13.587380945191       8.921385183885
        77    2        9.492726958326       3.562438249154       0.640286419981
        78    2        5.172557333596       3.562427999440       8.799200157997
        79    2        9.492679305621      13.587351662393       0.640251656652
        80    2        5.172509680891      13.587341412679       8.799165394668
        81    2       -1.712597700169       1.449921294303       4.842017694648
        82    2       -6.032767324899       1.449911044589      13.000931432665
        83    2       -1.712645352874      11.474834707542       4.841982931319
        84    2       -6.032814977604      11.474824457827      13.000896669336
        85    2        7.332622168034       1.449881761791       4.719797905432
        86    2        3.012452543305       1.449871512077      12.878711643449
        87    2        7.332574515329      11.474795175030       4.719763142103
        88    2        3.012404890600      11.474784925316      12.878676880120
        89    2        4.277593734848       6.462364694052       7.274104627276
        90    2       -0.042575889881       6.462354444337      15.433018365292
        91    2        4.277546082144      16.487278107290       7.274069863947
        92    2       -0.042623542586      16.487267857576      15.432983601963
        93    2       13.322813603052       6.462325161540       7.151884838059
        94    2        9.002643978322       6.462314911826      15.310798576076
        95    2       13.322765950347      16.487238574779       7.151850074731
        96    2        9.002596325617      16.487228325065      15.310763812747
        97    2        7.181200524541       7.068280823910       1.742426584429
        98    2        2.861030899811       7.068270574196       9.901340322446
        99    2        7.181152871836      17.093194237149       1.742391821100
       100    2        2.860983247106      17.093183987435       9.901305559117
       101    2       16.226420392744       7.068241291398       1.620206795213
       102    2       11.906250768014       7.068231041684       9.779120533230
       103    2       16.226372740039      17.093154704637       1.620172031884
       104    2       11.906203115309      17.093144454923       9.779085769901
       105    2       -0.296040435514       2.055896533641       2.214737334389
       106    2       -4.616210060243       2.055886283927      10.373651072405
       107    2       -0.296088088218      12.080809946880       2.214702571060
       108    2       -4.616257712948      12.080799697166      10.373616309076
       109    2        8.749179432690       2.055857001129       2.092517545172
       110    2        4.429009807960       2.055846751415      10.251431283189
       111    2        8.749131779985      12.080770414368       2.092482781844
       112    2        4.428962155255      12.080760164654      10.251396519860
       113    2       -2.456166337088       2.956564402819       6.294192537203
       114    2       -6.776335961818       2.956554153105      14.453106275219
       115    2       -2.456213989793      12.981477816058       6.294157773874
       116    2       -6.776383614523      12.981467566344      14.453071511890
       117    2        6.589053531115       2.956524870307       6.171972747986
       118    2        2.268883906385       2.956514620593      14.330886486003
       119    2        6.589005878410      12.981438283546       6.171937984658
       120    2        2.268836253680      12.981428033832      14.330851722674
       121    2        5.021067237306       7.968925677442       5.821795336223
       122    2        0.700897612576       7.968915427728      13.980709074240
       123    2        5.021019584601      17.993839090681       5.821760572894
       124    2        0.700849959872      17.993828840967      13.980674310911
       125    2       14.066287105510       7.968886144931       5.699575547007
       126    2        9.746117480780       7.968875895216      13.858489285024
       127    2       14.066239452805      17.993799558169       5.699540783678
       128    2        9.746069828075      17.993789308455      13.858454521695
       129    3        1.074634011347       0.695167689530       5.016760086624
       130    3       -3.245535613383       0.695157439816      13.175673824641
       131    3        1.074586358642      10.720081102769       5.016725323295
       132    3       -3.245583266088      10.720070853055      13.175639061312
       133    3       10.119853879550       0.695128157019       4.894540297408
       134    3        5.799684254820       0.695117907305      13.053454035424
       135    3       10.119806226845      10.720041570258       4.894505534079
       136    3        5.799636602116      10.720031320543      13.053419272096
       137    3        1.490444390213       5.707535671609       7.099179891204
       138    3       -2.829725234517       5.707525421895      15.258093629221
       139    3        1.490396737508      15.732449084848       7.099145127875
       140    3       -2.829772887221      15.732438835134      15.258058865892
       141    3       10.535664258417       5.707496139098       6.976960101988
       142    3        6.215494633687       5.707485889384      15.135873840005
       143    3       10.535616605712      15.732409552337       6.976925338659
       144    3        6.215446980982      15.732399302623      15.135839076676
       145    3        3.650419476338       9.329820203670       3.019714315518
       146    3       -0.669750148392       9.329809953956      11.178628053535
       147    3        3.650371823633      19.354733616909       3.019679552189
       148    3       -0.669797801097      19.354723367195      11.178593290206
       149    3       12.695639344542       9.329780671159       2.897494526302
       150    3        8.375469719812       9.329770421445      11.056408264319
       151    3       12.695591691837      19.354694084398       2.897459762973
       152    3        8.375422067107      19.354683834684      11.056373500990
       153    3        3.234751119476       4.317287367431       0.937250856771
       154    3       -1.085418505254       4.317277117717       9.096164594787
       155    3        3.234703466771      14.342200780670       0.937216093442
       156    3       -1.085466157959      14.342190530956       9.096129831458
       157    3       12.279970987679       4.317247834919       0.815031067554
       158    3        7.959801362949       4.317237585205       8.973944805571
       159    3       12.279923334974      14.342161248158       0.814996304226
       160    3        7.959753710245      14.342150998444       8.973910042242
       161    3        3.241154219827       0.323407860027       5.510322997784
       162    3       -1.079015404903       0.323397610313      13.669236735800
       163    3        3.241106567122      10.348321273266       5.510288234455
       164    3       -1.079063057608      10.348311023552      13.669201972472
       165    3       12.286374088030       0.323368327516       5.388103208568
       166    3        7.966204463300       0.323358077801      13.547016946584
       167    3       12.286326435325      10.348281740755       5.388068445239
       168    3        7.966156810595      10.348271491040      13.546982183255
       169    3       -0.676140143801       5.335970391765       6.605663941068
       170    3       -4.996309768531       5.335960142051      14.764577679085
       171    3       -0.676187796506      15.360883805004       6.605629177740
       172    3       -4.996357421236      15.360873555290      14.764542915756
       173    3        8.369079724402       5.335930859253       6.483444151852
       174    3        4.048910099673       5.335920609539      14.642357889869
       175    3        8.369032071697      15.360844272492       6.483409388524
       176    3        4.048862446968      15.360834022778      14.642323126540
       177    3        1.483857248207       9.701458115453       2.526225476054
       178    3       -2.836312376523       9.701447865739      10.685139214071
       179    3        1.483809595502      19.726371528692       2.526190712725
       180    3       -2.836360029227      19.726361278978      10.685104450742
       181    3       10.529077116411       9.701418582941       2.404005686838
       182    3        6.208907491681       9.701408333227      10.562919424855
       183    3       10.529029463706      19.726331996180       2.403970923509
       184    3        6.208859838976      19.726321746466      10.562884661526
       185    3        5.401300263047       4.688944020625       1.430805917137
       186    3        1.081130638318       4.688933770911       9.589719655154
       187    3        5.401252610343      14.713857433864       1.430771153808
       188    3        1.081082985613      14.713847184149       9.589684891825
       189    3       14.446520131251       4.688904488113       1.308586127921
       190    3       10.126350506521       4.688894238399       9.467499865938
       191    3       14.446472478546      14.713817901352       1.308551364592
       192    3       10.126302853816      14.713807651638       9.467465102609
       193    4       -0.896225043534       7.975790033246       2.121338931075
       194    4       -5.216394668264       7.975779783531      10.280252669092
       195    4       -0.896272696239      18.000703446485       2.121304167746
       196    4       -5.216442320969      18.000693196770      10.280217905763
       197    4        8.148994824669       7.975750500734       1.999119141859
       198    4        3.828825199939       7.975740251020      10.158032879876
       199    4        8.148947171964      18.000663913973       1.999084378530
       200    4        3.828777547235      18.000653664259      10.157998116547
       201    4        7.781377167024       2.963297026210       1.835783700515
       202    4        3.461207542295       2.963286776496       9.994697438532
       203    4        7.781329514320      12.988210439449       1.835748937186
       204    4        3.461159889590      12.988200189735       9.994662675203
       205    4       16.826597035228       2.963257493699       1.713563911299
       206    4       12.506427410498       2.963247243984       9.872477649316
       207    4       16.826549382523      12.988170906938       1.713529147970
       208    4       12.506379757793      12.988160657223       9.872442885987
       209    4        5.621253787686       2.049068614911       5.915250154592
       210    4        1.301084162956       2.049058365197      14.074163892608
       211    4        5.621206134981      12.073982028150       5.915215391263
       212    4        1.301036510251      12.073971778436      14.074129129279
       213    4       14.666473655889       2.049029082399       5.793030365375
       214    4       10.346304031159       2.049018832685      13.951944103392
       215    4       14.666426003184      12.073942495638       5.792995602047
       216    4       10.346256378454      12.073932245924      13.951909340063
       217    4       -3.056316703583       7.061576343491       6.200791399781
       218    4       -7.376486328312       7.061566093777      14.359705137798
       219    4       -3.056364356288      17.086489756730       6.200756636453
       220    4       -7.376533981017      17.086479507016      14.359670374469
       221    4        5.988903164621       7.061536810979       6.078571610565
       222    4        1.668733539891       7.061526561265      14.237485348582
       223    4        5.988855511916      17.086450224218       6.078536847237
       224    4        1.668685887186      17.086439974504      14.237450585253
       225    4        6.140369461928       7.478378970265       2.505000629472
       226    4        1.820199837198       7.478368720551      10.663914367489
       227    4        6.140321809223      17.503292383504       2.504965866143
       228    4        1.820152184494      17.503282133790      10.663879604160
       229    4       15.185589330132       7.478339437753       2.382780840256
       230    4       10.865419705402       7.478329188039      10.541694578273
       231    4       15.185541677427      17.503252850992       2.382746076927
       232    4       10.865372052697      17.503242601278      10.541659814944
       233    4        0.744773363138       2.465936365989       1.452117433192
       234    4       -3.575396261592       2.465926116275       9.611031171209
       235    4        0.744725710433      12.490849779228       1.452082669863
       236    4       -3.575443914297      12.490839529514       9.610996407880
       237    4        9.789993231341       2.465896833477       1.329897643976
       238    4        5.469823606611       2.465886583763       9.488811381993
       239    4        9.789945578636      12.490810246716       1.329862880647
       240    4        5.469775953906      12.490799997002       9.488776618664
       241    4       -1.415333896784       2.546482919756       5.531593558714
       242    4       -5.735503521514       2.546472670041      13.690507296731
       243    4       -1.415381549489      12.571396332994       5.531558795385
       244    4       -5.735551174219      12.571386083280      13.690472533402
       245    4        7.629885971419       2.546443387244       5.409373769498
       246    4        3.309716346690       2.546433137530      13.568287507515
       247    4        7.629838318714      12.571356800483       5.409339006169
       248    4        3.309668693985      12.571346550769      13.568252744186
       249    4        3.980274921016       7.558864623374       6.584450305082
       250    4       -0.339894703714       7.558854373660      14.743364043099
       251    4        3.980227268311      17.583778036613       6.584415541754
       252    4       -0.339942356419      17.583767786899      14.743329279770
       253    4       13.025494789219       7.558825090863       6.462230515866
       254    4        8.705325164489       7.558814841149      14.621144253883
       255    4       13.025447136514      17.583738504102       6.462195752538
       256    4        8.705277511784      17.583728254388      14.621109490554
       257    4        2.249555692860       0.293339605547       4.733661847103
       258    4       -2.070613931870       0.293329355833      12.892575585120
       259    4        2.249508040155      10.318253018786       4.733627083775
       260    4       -2.070661584575      10.318242769072      12.892540821791
       261    4       11.294775561063       0.293300073035       4.611442057887
       262    4        6.974605936333       0.293289823321      12.770355795904
       263    4       11.294727908358      10.318213486274       4.611407294559
       264    4        6.974558283628      10.318203236560      12.770321032575
       265    4        0.315512466717       5.305780773381       7.382308980372
       266    4       -4.004657158013       5.305770523667      15.541222718389
       267    4        0.315464814012      15.330694186620       7.382274217043
       268    4       -4.004704810718      15.330683936906      15.541187955060
       269    4        9.360732334920       5.305741240869       7.260089191156
       270    4        5.040562710191       5.305730991155      15.419002929173
       271    4        9.360684682216      15.330654654108       7.260054427827
       272    4        5.040515057486      15.330644404394      15.418968165844
       273    4        2.475499258754       9.731593377182       3.302843142156
       274    4       -1.844670365975       9.731583127468      11.461756880173
       275    4        2.475451606050      19.756506790421       3.302808378828
       276    4       -1.844718018680      19.756496540707      11.461722116844
       277    4       11.520719126958       9.731553844670       3.180623352940
       278    4        7.200549502228       9.731543594956      11.339537090957
       279    4       11.520671474253      19.756467257909       3.180588589612
       280    4        7.200501849523      19.756457008195      11.339502327628
       281    4        4.409663734704       4.719091158529       0.654126616143
       282    4        0.089494109974       4.719080908815       8.813040354159
       283    4        4.409616081999      14.744004571768       0.654091852814
       284    4        0.089446457269      14.743994322054       8.813005590831
       285    4       13.454883602907       4.719051626018       0.531906826927
       286    4        9.134713978178       4.719041376303       8.690820564943
       287    4       13.454835950203      14.743965039256       0.531872063598
       288    4        9.134666325473      14.743954789542       8.690785801615
       289    5        0.097257178362       7.986481128527       1.686481201497
       290    5       -4.222912446368       7.986470878813       9.845394939514
       291    5        0.097209525657      18.011394541766       1.686446438169
       292    5       -4.222960099073      18.011384292052       9.845360176185
       293    5        9.142477046565       7.986441596015       1.564261412281
       294    5        4.822307421835       7.986431346301       9.723175150298
       295    5        9.142429393860      18.011355009254       1.564226648952
       296    5        4.822259769131      18.011344759540       9.723140386969
       297    5        6.787889521195       2.974072356389       2.270661038749
       298    5        2.467719896466       2.974062106675      10.429574776766
       299    5        6.787841868491      12.998985769628       2.270626275420
       300    5        2.467672243761      12.998975519914      10.429540013437
       301    5       15.833109389399       2.974032823878       2.148441249533
       302    5       11.512939764669       2.974022574164      10.307354987550
       303    5       15.833061736694      12.998946237117       2.148406486204
       304    5       11.512892111964      12.998935987402      10.307320224221
       305    5        4.627768509390       2.038315837682       6.350121111665
       306    5        0.307598884660       2.038305587968      14.509034849681
       307    5        4.627720856685      12.063229250921       6.350086348336
       308    5        0.307551231956      12.063219001207      14.509000086353
       309    5       13.672988377594       2.038276305170       6.227901322449
       310    5        9.352818752864       2.038266055456      14.386815060465
       311    5       13.672940724889      12.063189718409       6.227866559120
       312    5        9.352771100159      12.063179468695      14.386780297136
       313    5       -2.062832874340       7.050825664070       5.765907557190
       314    5       -6.383002499070       7.050815414356      13.924821295206
       315    5       -2.062880527045      17.075739077309       5.765872793861
       316    5       -6.383050151775      17.075728827595      13.924786531878
       317    5        6.982386993863       7.050786131558       5.643687767974
       318    5        2.662217369133       7.050775881844      13.802601505990
       319    5        6.982339341158      17.075699544797       5.643653004645
       320    5        2.662169716428      17.075689295083      13.802566742661
       321    5        5.180259826024       6.978020316588       2.552284740134
       322    5        0.860090201294       6.978010066873      10.711198478151
       323    5        5.180212173319      17.002933729826       2.552249976805
       324    5        0.860042548589      17.002923480112      10.711163714822
       325    5       14.225479694227       6.977980784076       2.430064950918
       326    5        9.905310069498       6.977970534362      10.588978688935
       327    5       14.225432041523      17.002894197315       2.430030187589
       328    5        9.905262416793      17.002883947601      10.588943925606
       329    5        1.704885611255       1.965575401342       1.404854838011
       330    5       -2.615284013475       1.965565151628       9.563768576028
       331    5        1.704837958550      11.990488814581       1.404820074682
       332    5       -2.615331666180      11.990478564867       9.563733812699
       333    5       10.750105479458       1.965535868830       1.282635048795
       334    5        6.429935854729       1.965525619116       9.441548786811
       335    5       10.750057826754      11.990449282069       1.282600285466
       336    5        6.429888202024      11.990439032355       9.441514023483
       337    5       -0.455211917605       3.046837485777       5.484321283586
       338    5       -4.775381542335       3.046827236063      13.643235021603
       339    5       -0.455259570310      13.071750899016       5.484286520257
       340    5       -4.775429195040      13.071740649302      13.643200258274
       341    5        8.590007950598       3.046797953265       5.362101494370
       342    5        4.269838325869       3.046787703551      13.521015232387
       343    5        8.589960297894      13.071711366504       5.362066731041
       344    5        4.269790673164      13.071701116790      13.520980469058
       345    5        3.020132950058       8.059176309114       6.631702454081
       346    5       -1.300036674672       8.059166059400      14.790616192098
       347    5        3.020085297353      18.084089722353       6.631667690752
       348    5       -1.300084327377      18.084079472639      14.790581428769
       349    5       12.065352818261       8.059136776602       6.509482664865
       350    5        7.745183193531       8.059126526888      14.668396402882
       351    5       12.065305165556      18.084050189841       6.509447901536
       352    5        7.745135540827      18.084039940127      14.668361639553
